{
  "elements": [
    {
      "symbol": "H",
      "name": "Hydrogen",
      "atomic_number": 1,
      "atomic_weight": 1.008,
      "series": "nonmetal",
      "series_color": "#fcff38",
      "description": "Hydrogen is a chemical element with symbol H and atomic number 1. Classified as a nonmetal, hydrogen is a gas at room temperature.",
      "state": "gas",
      "group": 1,
      "period": 1,
      "info_url": "https://pubchem.ncbi.nlm.nih.gov/element/1",
      "density": 0.00008988,
      "melting_point": 13.81,
      "boiling_point": 20.28,
      "year_discovered": 1766
    },
    {
      "symbol": "He",
      "name": "Helium",
      "atomic_number": 2,
      "atomic_weight": 4.0026,
      "series": "noble_gas",
      "series_color": "#ffcb63",
      "description": "Helium is a chemical element with symbol He and atomic number 2. Classified as a noble gas, helium is a gas at room temperature.",
      "state": "gas",
      "group": 18,
      "period": 1,
      "info_url": "https://pubchem.ncbi.nlm.nih.gov/element/2",
      "density": 0.0001785,
      "melting_point": 0.95,
      "boiling_point": 4.22,
      "year_discovered": 1868
    },
    {
      "symbol": "Li",
      "name": "Lithium",
      "atomic_number": 3,
      "atomic_weight": 7.0,
      "series": "alkali_metal",
      "series_color": "#ff9c93",
      "description": "Lithium is a chemical element with symbol Li and atomic number 3. Classified as an alkali metal, lithium is a solid at room temperature.",
      "state": "solid",
      "group": 1,
      "period": 2,
      "info_url": "https://pubchem.ncbi.nlm.nih.gov/element/3",
      "density": 0.534,
      "melting_point": 453.65,
      "boiling_point": 1615,
      "year_discovered": 1817
    },
    {
      "symbol": "Be",
      "name": "Beryllium",
      "atomic_number": 4,
      "atomic_weight": 9.012183,
      "series": "alkaline_earth_metal",
      "series_color": "#b7b2ff",
      "description": "Beryllium is a chemical element with symbol Be and atomic number 4. Classified as an alkaline earth metal, beryllium is a solid at room temperature.",
      "state": "solid",
      "group": 2,
      "period": 2,
      "info_url": "https://pubchem.ncbi.nlm.nih.gov/element/4",
      "density": 1.85,
      "melting_point": 1560,
      "boiling_point": 2744,
      "year_discovered": 1798
    },
    {
      "symbol": "B",
      "name": "Boron",
      "atomic_number": 5,
      "atomic_weight": 10.81,
      "series": "metalloid",
      "series_color": "#a8eda0",
      "description": "Boron is a chemical element with symbol B and atomic number 5. Classified as a metalloid, boron is a solid at room temperature.",
      "state": "solid",
      "group": 13,
      "period": 2,
      "info_url": "https://pubchem.ncbi.nlm.nih.gov/element/5",
      "density": 2.37,
      "melting_point": 2348,
      "boiling_point": 4273,
      "year_discovered": 1808
    },
    {
      "symbol": "C",
      "name": "Carbon",
      "atomic_number": 6,
      "atomic_weight": 12.011,
      "series": "nonmetal",
      "series_color": "#fcff38",
      "description": "Carbon is a chemical element with symbol C and atomic number 6. Classified as a nonmetal, carbon is a solid at room temperature.",
      "state": "solid",
      "group": 14,
      "period": 2,
      "info_url": "https://pubchem.ncbi.nlm.nih.gov/element/6",
      "density": 2.267,
      "melting_point": 3823,
      "boiling_point": 4098,
      "year_discovered": 0
    },
    {
      "symbol": "N",
      "name": "Nitrogen",
      "atomic_number": 7,
      "atomic_weight": 14.007,
      "series": "nonmetal",
      "series_color": "#fcff38",
      "description": "Nitrogen is a chemical element with symbol N and atomic number 7. Classified as a nonmetal, nitrogen is a gas at room temperature.",
      "state": "gas",
      "group": 15,
      "period": 2,
      "info_url": "https://pubchem.ncbi.nlm.nih.gov/element/7",
      "density": 0.0012506,
      "melting_point": 63.15,
      "boiling_point": 77.36,
      "year_discovered": 1772
    },
    {
      "symbol": "O",
      "name": "Oxygen",
      "atomic_number": 8,
      "atomic_weight": 15.999,
      "series": "nonmetal",
      "series_color": "#fcff38",
      "description": "Oxygen is a chemical element with symbol O and atomic number 8. Classified as a nonmetal, oxygen is a gas at room temperature.",
      "state": "gas",
      "group": 16,
      "period": 2,
      "info_url": "https://pubchem.ncbi.nlm.nih.gov/element/8",
      "density": 0.001429,
      "melting_point": 54.36,
      "boiling_point": 90.2,
      "year_discovered": 1774
    },
    {
      "symbol": "F",
      "name": "Fluorine",
      "atomic_number": 9,
      "atomic_weight": 18.99840316,
      "series": "halogen",
      "series_color": "#fcff38",
      "description": "Fluorine is a chemical element with symbol F and atomic number 9. Classified as a halogen, fluorine is a gas at room temperature.",
      "state": "gas",
      "group": 17,
      "period": 2,
      "info_url": "https://pubchem.ncbi.nlm.nih.gov/element/9",
      "density": 0.001696,
      "melting_point": 53.53,
      "boiling_point": 85.03,
      "year_discovered": 1670
    },
    {
      "symbol": "Ne",
      "name": "Neon",
      "atomic_number": 10,
      "atomic_weight": 20.180,
      "series": "noble_gas",
      "series_color": "#ffcb63",
      "description": "Neon is a chemical element with symbol Ne and atomic number 10. Classified as a noble gas, neon is a gas at room temperature.",
      "state": "gas",
      "group": 18,
      "period": 2,
      "info_url": "https://pubchem.ncbi.nlm.nih.gov/element/10",
      "density": 0.0008999,
      "melting_point": 24.56,
      "boiling_point": 27.07,
      "year_discovered": 1898
    },
    {
      "symbol": "Na",
      "name": "Sodium",
      "atomic_number": 11,
      "atomic_weight": 22.9897693,
      "series": "alkali_metal",
      "series_color": "#ff9c93",
      "description": "Sodium is a chemical element with symbol Na and atomic number 11. Classified as an alkali metal, sodium is a solid at room temperature.",
      "state": "solid",
      "group": 1,
      "period": 3,
      "info_url": "https://pubchem.ncbi.nlm.nih.gov/element/11",
      "density": 0.97,
      "melting_point": 370.95,
      "boiling_point": 1156,
      "year_discovered": 1807
    },
    {
      "symbol": "Mg",
      "name": "Magnesium",
      "atomic_number": 12,
      "atomic_weight": 24.305,
      "series": "alkaline_earth_metal",
      "series_color": "#b7b2ff",
      "description": "Magnesium is a chemical element with symbol Mg and atomic number 12. Classified as an alkaline earth metal, magnesium is a solid at room temperature.",
      "state": "solid",
      "group": 2,
      "period": 3,
      "info_url": "https://pubchem.ncbi.nlm.nih.gov/element/12",
      "density": 1.74,
      "melting_point": 923,
      "boiling_point": 1363,
      "year_discovered": 1808
    },
    {
      "symbol": "Al",
      "name": "Aluminum",
      "atomic_number": 13,
      "atomic_weight": 26.981538,
      "series": "post_transition_metal",
      "series_color": "#97fe8f",
      "description": "Aluminum is a chemical element with symbol Al and atomic number 13. Classified as a post-transition metal, aluminum is a solid at room temperature.",
      "state": "solid",
      "group": 13,
      "period": 3,
      "info_url": "https://pubchem.ncbi.nlm.nih.gov/element/13",
      "density": 2.70,
      "melting_point": 933.437,
      "boiling_point": 2792,
      "year_discovered": 0
    },
    {
      "symbol": "Si",
      "name": "Silicon",
      "atomic_number": 14,
      "atomic_weight": 28.085,
      "series": "metalloid",
      "series_color": "#a8eda0",
      "description": "Silicon is a chemical element with symbol Si and atomic number 14. Classified as a metalloid, silicon is a solid at room temperature.",
      "state": "solid",
      "group": 14,
      "period": 3,
      "info_url": "https://pubchem.ncbi.nlm.nih.gov/element/14",
      "density": 2.3296,
      "melting_point": 1687,
      "boiling_point": 3538,
      "year_discovered": 1854
    },
    {
      "symbol": "P",
      "name": "Phosphorus",
      "atomic_number": 15,
      "atomic_weight": 30.97376200,
      "series": "nonmetal",
      "series_color": "#fcff38",
      "description": "Phosphorus is a chemical element with symbol P and atomic number 15. Classified as a nonmetal, phosphorus is a solid at room temperature.",
      "state": "solid",
      "group": 15,
      "period": 3,
      "info_url": "https://pubchem.ncbi.nlm.nih.gov/element/15",
      "density": 1.82,
      "melting_point": 317.3,
      "boiling_point": 553.65,
      "year_discovered": 1669
    },
    {
      "symbol": "S",
      "name": "Sulfur",
      "atomic_number": 16,
      "atomic_weight": 32.07,
      "series": "nonmetal",
      "series_color": "#fcff38",
      "description": "Sulfur is a chemical element with symbol S and atomic number 16. Classified as a nonmetal, sulfur is a solid at room temperature.",
      "state": "solid",
      "group": 16,
      "period": 3,
      "info_url": "https://pubchem.ncbi.nlm.nih.gov/element/16",
      "density": 2.067,
      "melting_point": 388.36,
      "boiling_point": 717.75,
      "year_discovered": 0
    },
    {
      "symbol": "Cl",
      "name": "Chlorine",
      "atomic_number": 17,
      "atomic_weight": 35.45,
      "series": "halogen",
      "series_color": "#fcff38",
      "description": "Chlorine is a chemical element with symbol Cl and atomic number 17. Classified as a halogen, chlorine is a gas at room temperature.",
      "state": "gas",
      "group": 17,
      "period": 3,
      "info_url": "https://pubchem.ncbi.nlm.nih.gov/element/17",
      "density": 0.003214,
      "melting_point": 171.65,
      "boiling_point": 239.11,
      "year_discovered": 1774
    },
    {
      "symbol": "Ar",
      "name": "Argon",
      "atomic_number": 18,
      "atomic_weight": 39.9,
      "series": "noble_gas",
      "series_color": "#fcff38",
      "description": "Argon is a chemical element with symbol Ar and atomic number 18. Classified as a noble gas, argon is a gas at room temperature.",
      "state": "gas",
      "group": 18,
      "period": 3,
      "info_url": "https://pubchem.ncbi.nlm.nih.gov/element/18",
      "density": 0.0017837,
      "melting_point": 83.8,
      "boiling_point": 87.3,
      "year_discovered": 1894
    },
    {
      "symbol": "K",
      "name": "Potassium",
      "atomic_number": 19,
      "atomic_weight": 39.0983,
      "series": "alkali_metal",
      "series_color": "#fcff38",
      "description": "Potassium is a chemical element with symbol K and atomic number 19. Classified as an alkali metal, potassium is a solid at room temperature.",
      "state": "solid",
      "group": 1,
      "period": 4,
      "info_url": "https://pubchem.ncbi.nlm.nih.gov/element/19",
      "density": 0.89,
      "melting_point": 336.53,
      "boiling_point": 1032,
      "year_discovered": 1807
    },
    {
      "symbol": "Ca",
      "name": "Calcium",
      "atomic_number": 20,
      "atomic_weight": 48.08,
      "series": "alkaline_earth_metal",
      "series_color": "#fcff38",
      "description": "Calcium is a chemical element with symbol Ca and atomic number 20. Classified as an alkaline earth metal, calcium is a solid at room temperature.",
      "state": "solid",
      "group": 2,
      "period": 4,
      "info_url": "https://pubchem.ncbi.nlm.nih.gov/element/20",
      "density": 1.54,
      "melting_point": 1115,
      "boiling_point": 1757,
      "year_discovered": 0
    },
    {
      "symbol": "Sc",
      "name": "Scandium",
      "atomic_number": 21,
      "atomic_weight": 44.95591,
      "series": "transition_metal",
      "series_color": "#fcff38",
      "description": "Scandium is a chemical element with symbol Sc and atomic number 21. Classified as a transition metal, scandium is a solid at room temperature.",
      "state": "solid",
      "group": 3,
      "period": 4,
      "info_url": "https://pubchem.ncbi.nlm.nih.gov/element/21",
      "density": 2.99,
      "melting_point": 1814,
      "boiling_point": 3109,
      "year_discovered": 1874
    },
    {
      "symbol": "Ti",
      "name": "Titanium",
      "atomic_number": 22,
      "atomic_weight": 47.867,
      "series": "transition_metal",
      "series_color": "#fcff38",
      "description": "Titanium is a chemical element with symbol Ti and atomic number 22. Classified as a transition metal, titanium is a solid at room temperature.",
      "state": "solid",
      "group": 4,
      "period": 4,
      "info_url": "https://pubchem.ncbi.nlm.nih.gov/element/22",
      "density": 4.5,
      "melting_point": 1941,
      "boiling_point": 3560,
      "year_discovered": 1791
    },
    {
      "symbol": "V",
      "name": "Vanadium",
      "atomic_number": 23,
      "atomic_weight": 50.9415,
      "series": "transition_metal",
      "series_color": "#fcff38",
      "description": "Vanadium is a chemical element with symbol V and atomic number 23. Classified as a transition metal, vanadium is a solid at room temperature.",
      "state": "solid",
      "group": 5,
      "period": 4,
      "info_url": "https://pubchem.ncbi.nlm.nih.gov/element/23",
      "density": 6,
      "melting_point": 2183,
      "boiling_point": 3680,
      "year_discovered": 1801
    },
    {
      "symbol": "Cr",
      "name": "Chromium",
      "atomic_number": 24,
      "atomic_weight": 51.996,
      "series": "transition_metal",
      "series_color": "#fcff38",
      "description": "Chromium is a chemical element with symbol Cr and atomic number 24. Classified as a transition metal, chromium is a solid at room temperature.",
      "state": "solid",
      "group": 6,
      "period": 4,
      "info_url": "https://pubchem.ncbi.nlm.nih.gov/element/24",
      "density": 7.15,
      "melting_point": 2180,
      "boiling_point": 2944,
      "year_discovered": 1797
    },
    {
      "symbol": "Mn",
      "name": "Manganese",
      "atomic_number": 25,
      "atomic_weight": 54.93804,
      "series": "transition_metal",
      "series_color": "#fcff38",
      "description": "Manganese is a chemical element with symbol Mn and atomic number 25. Classified as a transition metal, manganese is a solid at room temperature.",
      "state": "solid",
      "group": 7,
      "period": 4,
      "info_url": "https://pubchem.ncbi.nlm.nih.gov/element/25",
      "density": 7.3,
      "melting_point": 1519,
      "boiling_point": 2334,
      "year_discovered": 1774
    }
  ]
}
